/*--------------------------------*- C++ -*----------------------------------*\
| =========                 |                                                 |
| \\      /  F ield         | OpenFOAM: The Open Source CFD Toolbox           |
|  \\    /   O peration     | Version:  2.2.x                                 |
|   \\  /    A nd           | Web:      www.OpenFOAM.org                      |
|    \\/     M anipulation  |                                                 |
\*---------------------------------------------------------------------------*/
FoamFile
{
    version     2.0;
    format      ascii;
    class       volScalarField;
    location    "0";
    object      k;
}
// * * * * * * * * * * * * * * * * * * * * * * * * * * * * * * * * * * * * * //

dimensions      [0 2 -2 0 0 0 0];

internalField   uniform 0.184;

boundaryField
{
    naca0015
    {
        type            kqRWallFunction;
        value           $internalField;
    }
    YMIN
    {
        type            empty;
    }
    YMAX
    {
        type            empty;
    }
    XMIN
    {
        type            fixedValue;
        value           $internalField;
    }
    XMAX
    {
        type            inletOutlet;
        inletValue      $internalField;
        value           $internalField;
    }
    ZMIN
    {
        type            kqRWallFunction;
        value           $internalField;
    }
    ZMAX
    {
        type            kqRWallFunction;
        value           $internalField;
    }
}


// ************************************************************************* //
